# vtk DataFile Version 3.0
15-Oct-2018 bubble_sol.vtk exported from MATLAB
ASCII

DATASET UNSTRUCTURED_GRID
POINTS 362 double
-9.998501e-01 -1.731284e-02 0
-9.955687e-01 9.403657e-02 0
-9.926957e-01 -1.206453e-01 0
-9.803950e-01 1.970420e-01 0
-9.766042e-01 -2.150447e-01 0
-9.566995e-01 2.910774e-01 0
-9.471972e-01 -3.206516e-01 0
-9.197708e-01 3.476784e-02 9.576172e-02
-9.182343e-01 3.960377e-01 0
-9.090850e-01 -4.166107e-01 0
-9.031305e-01 -6.293631e-02 1.119132e-01
-8.962405e-01 1.311700e-01 1.114217e-01
-8.857006e-01 -2.444438e-01 9.751498e-02
-8.728552e-01 -1.520958e-01 1.317543e-01
-8.707823e-01 4.916688e-01 0
-8.662152e-01 3.117847e-01 9.555399e-02
-8.624835e-01 -5.060852e-01 0
-8.601758e-01 2.186331e-01 1.302256e-01
-8.417047e-01 -3.362109e-01 1.108109e-01
-8.320577e-01 3.180994e-02 1.822918e-01
-8.160648e-01 4.008896e-01 1.078029e-01
-8.134798e-01 5.815932e-01 0
-8.088032e-01 -5.880794e-01 0
-8.004729e-01 -6.419645e-02 2.079259e-01
-7.975313e-01 -4.248123e-01 1.137003e-01
-7.943439e-01 1.262166e-01 2.068631e-01
-7.915634e-01 -2.387241e-01 1.875170e-01
-7.737991e-01 3.008910e-01 1.844514e-01
-7.662050e-01 4.870261e-01 1.092063e-01
-7.549737e-01 -1.505559e-01 2.348084e-01
-7.499633e-01 -6.614794e-01 0
-7.461578e-01 6.657691e-01 0
-7.461150e-01 -5.099525e-01 1.135745e-01
-7.443920e-01 2.111074e-01 2.317404e-01
-7.395276e-01 -3.321578e-01 2.014568e-01
-7.363563e-01 2.967200e-02 2.596529e-01
-7.161319e-01 3.925129e-01 1.963555e-01
-7.098954e-01 5.696925e-01 1.067374e-01
-6.931123e-01 -6.262365e-02 2.883514e-01
-6.888873e-01 -4.221544e-01 2.037924e-01
-6.887381e-01 -2.399684e-01 2.651625e-01
-6.878985e-01 1.207921e-01 2.866797e-01
-6.877596e-01 -5.917000e-01 1.098708e-01
-6.876174e-01 -7.260733e-01 0
-6.730027e-01 2.990789e-01 2.600095e-01
-6.661772e-01 7.457935e-01 0
-6.603435e-01 4.824793e-01 1.953360e-01
-6.493034e-01 6.532674e-01 9.507212e-02
-6.425188e-01 -1.511278e-01 3.115225e-01
-6.342391e-01 -3.316724e-01 2.748093e-01
-6.336729e-01 2.089333e-01 3.070267e-01
-6.336179e-01 2.834503e-02 3.271374e-01
-6.331744e-01 -5.092268e-01 1.998833e-01
-6.239758e-01 -6.712970e-01 1.000085e-01
-6.166893e-01 -7.872066e-01 0
-6.138286e-01 3.917958e-01 2.659776e-01
-6.023481e-01 5.752974e-01 1.820460e-01
-5.881758e-01 8.087331e-01 0
-5.851710e-01 -6.261579e-02 3.527938e-01
-5.829280e-01 -2.411307e-01 3.291436e-01
-5.810174e-01 1.189585e-01 3.503489e-01
-5.802410e-01 -4.216453e-01 2.737361e-01
-5.734299e-01 -5.975473e-01 1.862774e-01
-5.702352e-01 3.001794e-01 3.210855e-01
-5.638870e-01 6.922566e-01 1.248213e-01
-5.580645e-01 4.878790e-01 2.564979e-01
-5.443671e-01 -8.388471e-01 0
-5.347132e-01 -7.116367e-01 1.275848e-01
-5.327742e-01 -1.520846e-01 3.705008e-01
-5.284530e-01 2.779153e-02 3.824597e-01
-5.276805e-01 -3.322632e-01 3.333533e-01
-5.262623e-01 2.094517e-01 3.643060e-01
-5.243662e-01 -5.125729e-01 2.623285e-01
-5.132297e-01 3.962925e-01 3.186662e-01
-5.110532e-01 5.959424e-01 2.227164e-01
-5.007034e-01 7.714808e-01 9.653028e-02
-4.928402e-01 8.701198e-01 0
-4.776659e-01 -6.283163e-02 4.034243e-01
-4.770942e-01 -6.158720e-01 2.275391e-01
-4.761800e-01 -2.425085e-01 3.800187e-01
-4.749241e-01 1.188118e-01 4.001438e-01
-4.733269e-01 -4.242107e-01 3.263396e-01
-4.689158e-01 -7.850352e-01 1.022545e-01
-4.683064e-01 3.030767e-01 3.686302e-01
-4.626626e-01 4.981071e-01 2.989674e-01
-4.570883e-01 -8.894213e-01 0
-4.557667e-01 6.870877e-01 1.895143e-01
-4.246511e-01 -1.530371e-01 4.156548e-01
-4.229484e-01 -5.216520e-01 3.042741e-01
-4.227750e-01 2.774444e-02 4.260066e-01
-4.215821e-01 -3.344762e-01 3.782261e-01
-4.215490e-01 -7.015562e-01 1.947832e-01
-4.211818e-01 2.107384e-01 4.078839e-01
-4.151885e-01 4.000379e-01 3.590934e-01
-4.101417e-01 5.922334e-01 2.715397e-01
-4.059558e-01 7.957215e-01 1.243725e-01
-4.014410e-01 9.158849e-01 0
-3.741071e-01 -8.060359e-01 1.291189e-01
-3.738886e-01 -9.274736e-01 0
-3.708416e-01 -6.308696e-02 4.420556e-01
-3.698550e-01 -2.443089e-01 4.187688e-01
-3.696421e-01 1.191268e-01 4.381387e-01
-3.696189e-01 -4.291308e-01 3.643288e-01
-3.695083e-01 -6.116015e-01 2.756252e-01
-3.669210e-01 3.042628e-01 4.055488e-01
-3.633190e-01 4.930271e-01 3.396897e-01
-3.603107e-01 6.922396e-01 2.264633e-01
-3.267744e-01 8.628311e-01 9.335103e-02
-3.203247e-01 -7.080281e-01 2.290753e-01
-3.177984e-01 -1.540460e-01 4.490722e-01
-3.171977e-01 2.776005e-02 4.587659e-01
-3.168920e-01 2.109028e-01 4.406298e-01
-3.168189e-01 -3.373886e-01 4.111609e-01
-3.166630e-01 -5.206643e-01 3.413905e-01
-3.140376e-01 3.961188e-01 3.932280e-01
-3.138808e-01 5.866176e-01 3.082337e-01
-3.006392e-01 -8.656425e-01 1.001642e-01
-2.984071e-01 7.759863e-01 1.834337e-01
-2.911845e-01 9.566669e-01 0
-2.757871e-01 -9.612187e-01 0
-2.653590e-01 -6.145320e-01 3.056680e-01
-2.646758e-01 -6.343296e-02 4.700094e-01
-2.645087e-01 1.189363e-01 4.658903e-01
-2.643608e-01 -2.460130e-01 4.467001e-01
-2.638662e-01 -4.293632e-01 3.939064e-01
-2.635108e-01 3.018338e-01 4.340433e-01
-2.632062e-01 4.875504e-01 3.704986e-01
-2.615064e-01 6.716815e-01 2.712534e-01
-2.577090e-01 -7.844421e-01 1.884757e-01
-2.269014e-01 8.762065e-01 1.121357e-01
-2.118274e-01 -1.548717e-01 4.721473e-01
-2.117639e-01 2.095142e-01 4.639851e-01
-2.116372e-01 2.750974e-02 4.816464e-01
-2.116190e-01 -5.222410e-01 3.657875e-01
-2.114858e-01 5.746969e-01 3.397235e-01
-2.113171e-01 3.924173e-01 4.178415e-01
-2.112403e-01 -3.378332e-01 4.347980e-01
-2.078870e-01 -6.998391e-01 2.646468e-01
-2.078006e-01 7.590640e-01 2.211543e-01
-2.008695e-01 -8.820604e-01 1.126244e-01
-1.839537e-01 9.829349e-01 0
-1.807819e-01 -9.835232e-01 0
-1.593924e-01 6.616053e-01 2.985097e-01
-1.592230e-01 4.808096e-01 3.927905e-01
-1.589319e-01 2.997462e-01 4.530764e-01
-1.588689e-01 1.182000e-01 4.842161e-01
-1.588616e-01 -6.382544e-02 4.882202e-01
-1.586544e-01 -2.463335e-01 4.651743e-01
-1.586308e-01 -4.300869e-01 4.129108e-01
-1.566170e-01 -6.116846e-01 3.288017e-01
-1.523709e-01 -7.949268e-01 2.025620e-01
-1.476905e-01 8.306214e-01 1.723641e-01
-1.150197e-01 9.194202e-01 8.900953e-02
-1.070707e-01 5.684566e-01 3.581033e-01
-1.062503e-01 3.888888e-01 4.332060e-01
-1.060736e-01 2.085877e-01 4.779005e-01
-1.059181e-01 -1.550620e-01 4.858144e-01
-1.058844e-01 2.705488e-02 4.952134e-01
-1.058334e-01 -3.380797e-01 4.487500e-01
-1.049499e-01 -5.209839e-01 3.813979e-01
-1.023128e-01 -7.060349e-01 2.764243e-01
-1.020222e-01 -8.964820e-01 1.151077e-01
-1.013586e-01 7.418225e-01 2.509625e-01
-8.783975e-02 -9.961346e-01 0
-6.094901e-02 9.981409e-01 0
-5.373070e-02 4.773621e-01 4.040097e-01
-5.303099e-02 2.984624e-01 4.626862e-01
-5.301163e-02 1.177509e-01 4.933119e-01
-5.297384e-02 -2.464477e-01 4.743191e-01
-5.294684e-02 -6.402902e-02 4.972357e-01
-5.272878e-02 -4.292809e-01 4.227905e-01
-5.216878e-02 6.527457e-01 3.147542e-01
-5.171351e-02 -6.142093e-01 3.374616e-01
-5.042272e-02 -8.047822e-01 2.051351e-01
-4.981925e-02 8.351536e-01 1.787285e-01
-3.000000e-08 5.638918e-01 3.655833e-01
-2.000000e-08 3.881662e-01 4.382032e-01
-1.000000e-08 2.081246e-01 4.825519e-01
-1.000000e-08 7.434497e-01 2.548794e-01
0 -9.039945e-01 1.133041e-01
0 2.693591e-02 4.997098e-01
0 -1.552118e-01 4.903263e-01
0 -7.096185e-01 2.790489e-01
0 -3.376724e-01 4.535270e-01
0 -5.214119e-01 3.860588e-01
1.000000e-08 -1 0
6.000000e-08 9.225113e-01 9.348850e-02
4.981932e-02 8.351535e-01 1.787285e-01
5.042272e-02 -8.047822e-01 2.051351e-01
5.171351e-02 -6.142093e-01 3.374616e-01
5.216873e-02 6.527456e-01 3.147542e-01
5.272878e-02 -4.292809e-01 4.227905e-01
5.294683e-02 -6.402902e-02 4.972357e-01
5.297384e-02 -2.464477e-01 4.743191e-01
5.301162e-02 1.177509e-01 4.933119e-01
5.303096e-02 2.984624e-01 4.626862e-01
5.373065e-02 4.773621e-01 4.040097e-01
6.094913e-02 9.981409e-01 0
8.783976e-02 -9.961346e-01 0
1.013586e-01 7.418224e-01 2.509625e-01
1.020222e-01 -8.964821e-01 1.151077e-01
1.023128e-01 -7.060349e-01 2.764243e-01
1.049499e-01 -5.209839e-01 3.813979e-01
1.058334e-01 -3.380797e-01 4.487500e-01
1.058844e-01 2.705488e-02 4.952134e-01
1.059181e-01 -1.550620e-01 4.858144e-01
1.060736e-01 2.085877e-01 4.779005e-01
1.062502e-01 3.888888e-01 4.332060e-01
1.070706e-01 5.684565e-01 3.581034e-01
1.150198e-01 9.194201e-01 8.900960e-02
1.476905e-01 8.306213e-01 1.723642e-01
1.523709e-01 -7.949268e-01 2.025620e-01
1.566170e-01 -6.116846e-01 3.288017e-01
1.586308e-01 -4.300869e-01 4.129108e-01
1.586544e-01 -2.463335e-01 4.651743e-01
1.588616e-01 -6.382544e-02 4.882202e-01
1.588689e-01 1.182000e-01 4.842161e-01
1.589319e-01 2.997461e-01 4.530764e-01
1.592229e-01 4.808096e-01 3.927905e-01
1.593923e-01 6.616052e-01 2.985097e-01
1.807819e-01 -9.835232e-01 0
1.839537e-01 9.829349e-01 0
2.008695e-01 -8.820604e-01 1.126244e-01
2.078006e-01 7.590639e-01 2.211544e-01
2.078870e-01 -6.998391e-01 2.646468e-01
2.112403e-01 -3.378332e-01 4.347980e-01
2.113171e-01 3.924173e-01 4.178415e-01
2.114858e-01 5.746968e-01 3.397235e-01
2.116190e-01 -5.222410e-01 3.657875e-01
2.116372e-01 2.750973e-02 4.816464e-01
2.117639e-01 2.095142e-01 4.639851e-01
2.118274e-01 -1.548717e-01 4.721473e-01
2.269015e-01 8.762064e-01 1.121357e-01
2.577090e-01 -7.844421e-01 1.884757e-01
2.615064e-01 6.716814e-01 2.712534e-01
2.632062e-01 4.875504e-01 3.704986e-01
2.635107e-01 3.018338e-01 4.340433e-01
2.638662e-01 -4.293632e-01 3.939064e-01
2.643608e-01 -2.460130e-01 4.467001e-01
2.645087e-01 1.189363e-01 4.658903e-01
2.646758e-01 -6.343296e-02 4.700094e-01
2.653590e-01 -6.145320e-01 3.056680e-01
2.757871e-01 -9.612187e-01 0
2.911845e-01 9.566669e-01 0
2.984071e-01 7.759863e-01 1.834337e-01
3.006392e-01 -8.656425e-01 1.001642e-01
3.138808e-01 5.866175e-01 3.082338e-01
3.140376e-01 3.961187e-01 3.932280e-01
3.166630e-01 -5.206643e-01 3.413905e-01
3.168189e-01 -3.373886e-01 4.111609e-01
3.168920e-01 2.109028e-01 4.406299e-01
3.171977e-01 2.776004e-02 4.587659e-01
3.177984e-01 -1.540460e-01 4.490722e-01
3.203247e-01 -7.080281e-01 2.290753e-01
3.267744e-01 8.628311e-01 9.335105e-02
3.603107e-01 6.922395e-01 2.264634e-01
3.633190e-01 4.930271e-01 3.396897e-01
3.669210e-01 3.042628e-01 4.055488e-01
3.695083e-01 -6.116015e-01 2.756252e-01
3.696189e-01 -4.291308e-01 3.643288e-01
3.696421e-01 1.191268e-01 4.381387e-01
3.698550e-01 -2.443089e-01 4.187688e-01
3.708416e-01 -6.308696e-02 4.420556e-01
3.738886e-01 -9.274736e-01 0
3.741071e-01 -8.060359e-01 1.291189e-01
4.014410e-01 9.158849e-01 0
4.059558e-01 7.957214e-01 1.243725e-01
4.101417e-01 5.922334e-01 2.715397e-01
4.151885e-01 4.000379e-01 3.590934e-01
4.211818e-01 2.107383e-01 4.078839e-01
4.215490e-01 -7.015562e-01 1.947832e-01
4.215821e-01 -3.344762e-01 3.782261e-01
4.227750e-01 2.774444e-02 4.260066e-01
4.229484e-01 -5.216520e-01 3.042741e-01
4.246511e-01 -1.530371e-01 4.156548e-01
4.557667e-01 6.870877e-01 1.895143e-01
4.570883e-01 -8.894213e-01 0
4.626626e-01 4.981071e-01 2.989674e-01
4.683064e-01 3.030767e-01 3.686302e-01
4.689158e-01 -7.850352e-01 1.022545e-01
4.733269e-01 -4.242107e-01 3.263396e-01
4.749241e-01 1.188118e-01 4.001438e-01
4.761800e-01 -2.425085e-01 3.800187e-01
4.770942e-01 -6.158720e-01 2.275391e-01
4.776659e-01 -6.283164e-02 4.034243e-01
4.928402e-01 8.701198e-01 0
5.007034e-01 7.714808e-01 9.653028e-02
5.110532e-01 5.959424e-01 2.227164e-01
5.132297e-01 3.962925e-01 3.186662e-01
5.243662e-01 -5.125729e-01 2.623285e-01
5.262623e-01 2.094517e-01 3.643060e-01
5.276805e-01 -3.322632e-01 3.333533e-01
5.284530e-01 2.779153e-02 3.824597e-01
5.327742e-01 -1.520846e-01 3.705008e-01
5.347132e-01 -7.116367e-01 1.275848e-01
5.443671e-01 -8.388471e-01 0
5.580645e-01 4.878790e-01 2.564979e-01
5.638870e-01 6.922566e-01 1.248213e-01
5.702352e-01 3.001794e-01 3.210855e-01
5.734299e-01 -5.975473e-01 1.862774e-01
5.802410e-01 -4.216453e-01 2.737361e-01
5.810174e-01 1.189585e-01 3.503489e-01
5.829280e-01 -2.411307e-01 3.291436e-01
5.851710e-01 -6.261579e-02 3.527938e-01
5.881758e-01 8.087331e-01 0
6.023481e-01 5.752974e-01 1.820460e-01
6.138286e-01 3.917958e-01 2.659776e-01
6.166893e-01 -7.872066e-01 0
6.239758e-01 -6.712970e-01 1.000085e-01
6.331744e-01 -5.092268e-01 1.998833e-01
6.336179e-01 2.834503e-02 3.271374e-01
6.336730e-01 2.089333e-01 3.070267e-01
6.342391e-01 -3.316724e-01 2.748093e-01
6.425188e-01 -1.511278e-01 3.115225e-01
6.493034e-01 6.532674e-01 9.507212e-02
6.603435e-01 4.824794e-01 1.953360e-01
6.661771e-01 7.457935e-01 0
6.730027e-01 2.990789e-01 2.600095e-01
6.876174e-01 -7.260733e-01 0
6.877596e-01 -5.917000e-01 1.098708e-01
6.878985e-01 1.207921e-01 2.866797e-01
6.887381e-01 -2.399684e-01 2.651625e-01
6.888873e-01 -4.221544e-01 2.037924e-01
6.931123e-01 -6.262365e-02 2.883514e-01
7.098954e-01 5.696925e-01 1.067374e-01
7.161319e-01 3.925130e-01 1.963555e-01
7.363563e-01 2.967200e-02 2.596529e-01
7.395276e-01 -3.321578e-01 2.014568e-01
7.443920e-01 2.111074e-01 2.317404e-01
7.461150e-01 -5.099525e-01 1.135745e-01
7.461578e-01 6.657692e-01 0
7.499633e-01 -6.614794e-01 0
7.549737e-01 -1.505559e-01 2.348084e-01
7.662050e-01 4.870261e-01 1.092063e-01
7.737992e-01 3.008910e-01 1.844514e-01
7.915634e-01 -2.387241e-01 1.875170e-01
7.943439e-01 1.262166e-01 2.068631e-01
7.975313e-01 -4.248123e-01 1.137003e-01
8.004729e-01 -6.419645e-02 2.079259e-01
8.088032e-01 -5.880794e-01 0
8.134798e-01 5.815932e-01 0
8.160648e-01 4.008896e-01 1.078029e-01
8.320577e-01 3.180995e-02 1.822918e-01
8.417047e-01 -3.362109e-01 1.108109e-01
8.601758e-01 2.186331e-01 1.302256e-01
8.624835e-01 -5.060852e-01 0
8.662152e-01 3.117848e-01 9.555399e-02
8.707823e-01 4.916688e-01 0
8.728552e-01 -1.520958e-01 1.317543e-01
8.857006e-01 -2.444438e-01 9.751498e-02
8.962405e-01 1.311700e-01 1.114217e-01
9.031305e-01 -6.293630e-02 1.119132e-01
9.090850e-01 -4.166107e-01 0
9.182343e-01 3.960377e-01 0
9.197708e-01 3.476785e-02 9.576172e-02
9.471972e-01 -3.206516e-01 0
9.566995e-01 2.910774e-01 0
9.766042e-01 -2.150447e-01 0
9.803950e-01 1.970421e-01 0
9.926957e-01 -1.206453e-01 0
9.955687e-01 9.403658e-02 0
9.998501e-01 -1.731283e-02 0

CELLS 661 2644
3 161 163 179 
3 34 18 24 
3 110 101 89 
3 89 99 110 
3 12 6 18 
3 164 186 197 
3 164 140 152 
3 152 186 164 
3 14 28 21 
3 163 161 141 
3 119 141 139 
3 139 141 161 
3 173 161 179 
3 34 24 39 
3 89 101 80 
3 26 18 34 
3 26 12 18 
3 6 12 4 
3 40 26 34 
3 48 40 59 
3 96 107 118 
3 305 297 287 
3 314 297 305 
3 347 341 353 
3 127 142 138 
3 118 107 129 
3 129 140 118 
3 129 152 140 
3 45 64 57 
3 31 21 37 
3 37 21 28 
3 76 57 75 
3 57 64 75 
3 232 243 221 
3 179 163 185 
3 185 198 179 
3 11 3 1 
3 18 6 9 
3 9 24 18 
3 9 16 24 
3 22 30 42 
3 98 97 85 
3 108 97 128 
3 108 120 103 
3 53 62 42 
3 42 30 53 
3 356 344 358 
3 328 344 334 
3 358 344 350 
3 350 360 358 
3 359 348 357 
3 351 359 361 
3 351 348 359 
3 338 348 351 
3 336 344 328 
3 336 350 344 
3 169 146 156 
3 288 298 306 
3 267 277 287 
3 256 277 267 
3 251 260 239 
3 230 216 239 
3 226 236 247 
3 247 236 257 
3 230 239 250 
3 250 239 260 
3 250 236 230 
3 257 236 250 
3 278 298 288 
3 61 39 52 
3 42 62 52 
3 32 39 24 
3 32 22 42 
3 42 52 32 
3 32 52 39 
3 24 16 32 
3 16 22 32 
3 65 55 73 
3 73 55 63 
3 134 142 127 
3 165 154 176 
3 92 80 101 
3 77 99 89 
3 121 110 99 
3 121 132 110 
3 146 132 121 
3 156 146 130 
3 146 121 130 
3 12 26 13 
3 23 10 13 
3 13 4 12 
3 48 59 68 
3 70 61 81 
3 34 39 49 
3 49 39 61 
3 49 40 34 
3 49 59 40 
3 61 70 49 
3 49 70 59 
3 65 73 84 
3 314 330 316 
3 304 297 316 
3 316 297 314 
3 162 138 142 
3 152 129 151 
3 151 129 138 
3 138 162 151 
3 31 37 47 
3 47 37 56 
3 47 45 31 
3 47 56 64 
3 64 45 47 
3 65 56 46 
3 56 37 46 
3 46 55 65 
3 46 37 28 
3 76 75 95 
3 95 96 76 
3 107 96 95 
3 209 232 221 
3 221 197 209 
3 209 197 186 
3 171 162 142 
3 2 10 0 
3 2 13 10 
3 4 13 2 
3 7 1 0 
3 7 11 1 
3 0 10 7 
3 97 98 116 
3 116 128 97 
3 116 98 119 
3 119 139 116 
3 139 128 116 
3 150 128 139 
3 150 139 161 
3 161 173 150 
3 91 97 108 
3 108 103 91 
3 113 120 133 
3 113 103 120 
3 133 124 113 
3 113 88 103 
3 54 53 43 
3 43 53 30 
3 344 356 346 
3 346 334 344 
3 346 356 353 
3 353 341 346 
3 341 334 346 
3 355 357 349 
3 349 357 348 
3 354 351 361 
3 361 360 354 
3 360 350 354 
3 206 216 230 
3 102 113 124 
3 81 88 102 
3 88 113 102 
3 148 124 133 
3 281 292 301 
3 301 292 310 
3 288 306 296 
3 296 277 288 
3 296 305 287 
3 287 277 296 
3 317 306 298 
3 298 311 317 
3 328 334 317 
3 317 311 328 
3 333 347 340 
3 341 347 333 
3 230 236 217 
3 217 206 230 
3 195 206 217 
3 217 236 226 
3 256 247 268 
3 288 277 268 
3 268 277 256 
3 268 247 257 
3 268 278 288 
3 257 278 268 
3 298 278 290 
3 281 301 290 
3 290 311 298 
3 290 301 311 
3 195 176 166 
3 166 176 154 
3 146 169 157 
3 157 167 145 
3 157 169 180 
3 180 167 157 
3 145 132 157 
3 157 132 146 
3 126 105 114 
3 165 176 196 
3 101 110 122 
3 110 132 122 
3 145 131 122 
3 122 132 145 
3 125 131 144 
3 144 166 154 
3 80 92 71 
3 111 131 125 
3 111 122 131 
3 111 92 101 
3 101 122 111 
3 83 73 63 
3 63 71 83 
3 83 71 92 
3 48 38 29 
3 29 40 48 
3 26 40 29 
3 29 38 23 
3 23 13 29 
3 29 13 26 
3 109 121 99 
3 123 130 109 
3 109 130 121 
3 58 68 77 
3 58 38 48 
3 48 68 58 
3 86 75 64 
3 86 95 75 
3 174 151 162 
3 186 152 174 
3 152 151 174 
3 107 95 117 
3 117 129 107 
3 138 129 117 
3 127 138 117 
3 210 223 232 
3 232 209 210 
3 134 126 143 
3 143 154 165 
3 142 134 153 
3 153 171 142 
3 134 143 153 
3 153 143 165 
3 234 227 246 
3 246 255 234 
3 267 255 246 
3 256 267 246 
3 223 210 199 
3 235 247 256 
3 256 246 235 
3 235 246 227 
3 226 247 235 
3 5 15 8 
3 27 15 17 
3 3 11 17 
3 17 5 3 
3 15 5 17 
3 20 15 27 
3 8 15 20 
3 20 28 14 
3 14 8 20 
3 128 150 137 
3 137 120 108 
3 108 128 137 
3 78 91 103 
3 103 88 78 
3 97 91 82 
3 66 85 82 
3 85 97 82 
3 72 88 81 
3 81 61 72 
3 62 78 72 
3 72 78 88 
3 61 52 72 
3 72 52 62 
3 350 336 342 
3 342 354 350 
3 336 326 342 
3 342 326 338 
3 338 351 342 
3 351 354 342 
3 320 336 328 
3 320 326 336 
3 328 311 320 
3 311 301 320 
3 310 326 320 
3 320 301 310 
3 194 167 180 
3 180 204 194 
3 204 216 194 
3 216 206 194 
3 331 308 318 
3 319 331 339 
3 319 308 331 
3 276 264 263 
3 245 242 263 
3 263 264 245 
3 343 352 355 
3 355 349 343 
3 251 239 229 
3 229 239 216 
3 229 216 204 
3 204 215 229 
3 159 148 133 
3 124 148 136 
3 314 305 324 
3 324 330 314 
3 340 330 324 
3 324 333 340 
3 341 333 325 
3 306 317 325 
3 325 334 341 
3 325 317 334 
3 232 223 244 
3 244 223 234 
3 234 255 244 
3 304 285 286 
3 286 297 304 
3 269 290 278 
3 269 250 260 
3 269 260 281 
3 281 290 269 
3 257 250 269 
3 269 278 257 
3 195 166 177 
3 167 194 177 
3 177 206 195 
3 177 194 206 
3 175 196 208 
3 165 196 175 
3 175 153 165 
3 171 153 175 
3 208 196 218 
3 226 235 218 
3 218 227 208 
3 218 235 227 
3 207 217 226 
3 226 218 207 
3 207 218 196 
3 195 217 207 
3 207 176 195 
3 207 196 176 
3 166 144 155 
3 145 167 155 
3 155 131 145 
3 155 144 131 
3 167 177 155 
3 155 177 166 
3 73 83 93 
3 114 105 93 
3 105 84 93 
3 93 84 73 
3 99 77 87 
3 87 109 99 
3 77 68 87 
3 69 58 77 
3 89 80 69 
3 69 77 89 
3 64 56 74 
3 74 86 64 
3 74 56 65 
3 65 84 74 
3 95 86 106 
3 106 117 95 
3 127 117 106 
3 187 209 186 
3 187 210 209 
3 186 174 187 
3 187 199 210 
3 135 126 114 
3 135 143 126 
3 114 125 135 
3 154 143 135 
3 135 144 154 
3 125 144 135 
3 234 223 219 
3 223 199 219 
3 219 227 234 
3 208 227 219 
3 36 20 27 
3 55 46 36 
3 36 46 28 
3 28 20 36 
3 91 78 67 
3 67 82 91 
3 62 53 67 
3 67 78 62 
3 67 53 54 
3 54 66 67 
3 66 82 67 
3 191 202 213 
3 213 203 191 
3 270 294 283 
3 307 318 308 
3 308 294 307 
3 307 294 295 
3 345 352 337 
3 352 343 337 
3 220 242 222 
3 242 245 222 
3 233 245 264 
3 233 222 245 
3 283 289 273 
3 272 292 281 
3 281 260 272 
3 272 260 251 
3 251 262 272 
3 240 262 251 
3 251 229 240 
3 240 229 215 
3 292 272 284 
3 284 272 262 
3 291 282 271 
3 192 215 204 
3 192 205 215 
3 192 204 180 
3 180 169 192 
3 193 203 214 
3 214 205 193 
3 158 136 148 
3 184 202 191 
3 189 202 184 
3 160 150 173 
3 160 137 150 
3 147 168 156 
3 123 136 147 
3 147 158 168 
3 136 158 147 
3 156 130 147 
3 147 130 123 
3 333 324 315 
3 315 325 333 
3 306 325 315 
3 315 296 306 
3 305 296 315 
3 315 324 305 
3 243 232 254 
3 232 244 254 
3 254 265 243 
3 287 297 275 
3 297 286 275 
3 275 267 287 
3 275 255 267 
3 190 175 208 
3 171 175 190 
3 208 219 190 
3 190 219 199 
3 114 93 104 
3 104 93 83 
3 104 125 114 
3 104 111 125 
3 92 111 104 
3 104 83 92 
3 79 87 68 
3 79 68 59 
3 59 70 79 
3 86 74 94 
3 94 106 86 
3 94 84 105 
3 94 74 84 
3 199 187 178 
3 162 171 178 
3 178 174 162 
3 178 187 174 
3 171 190 178 
3 178 190 199 
3 80 71 60 
3 60 69 80 
3 25 17 11 
3 33 25 41 
3 27 17 33 
3 17 25 33 
3 27 33 44 
3 44 36 27 
3 63 55 44 
3 55 36 44 
3 228 213 202 
3 237 213 228 
3 295 294 279 
3 294 270 279 
3 279 270 264 
3 279 276 295 
3 264 276 279 
3 299 289 283 
3 283 294 299 
3 299 294 308 
3 308 319 299 
3 200 198 220 
3 220 222 200 
3 179 198 200 
3 264 270 253 
3 253 233 264 
3 224 253 241 
3 233 253 224 
3 332 348 338 
3 323 326 310 
3 338 326 323 
3 323 332 338 
3 313 332 323 
3 241 253 258 
3 258 253 270 
3 258 270 283 
3 283 273 258 
3 274 284 262 
3 303 323 310 
3 313 323 303 
3 310 292 303 
3 292 284 303 
3 280 271 259 
3 259 273 280 
3 280 273 289 
3 291 271 280 
3 214 203 225 
3 225 213 237 
3 203 213 225 
3 237 259 249 
3 259 271 249 
3 249 225 237 
3 168 193 181 
3 181 192 169 
3 205 192 181 
3 181 193 205 
3 181 169 156 
3 156 168 181 
3 168 158 183 
3 183 193 168 
3 191 203 183 
3 203 193 183 
3 148 159 170 
3 170 158 148 
3 170 184 191 
3 159 184 170 
3 191 183 170 
3 170 183 158 
3 189 184 172 
3 172 184 159 
3 266 286 285 
3 285 265 266 
3 265 254 266 
3 266 254 244 
3 266 244 255 
3 255 275 266 
3 266 275 286 
3 112 136 123 
3 112 102 124 
3 124 136 112 
3 109 87 100 
3 87 79 100 
3 123 109 100 
3 100 112 123 
3 127 106 115 
3 106 94 115 
3 115 134 127 
3 115 94 105 
3 105 126 115 
3 115 126 134 
3 51 60 41 
3 38 58 51 
3 58 69 51 
3 69 60 51 
3 11 7 19 
3 19 25 11 
3 19 10 23 
3 19 7 10 
3 41 60 50 
3 50 33 41 
3 50 44 33 
3 50 60 71 
3 50 71 63 
3 63 44 50 
3 327 337 343 
3 302 282 291 
3 291 312 302 
3 337 327 322 
3 322 327 312 
3 309 299 319 
3 289 299 309 
3 188 173 179 
3 179 200 188 
3 241 228 212 
3 212 224 241 
3 212 228 202 
3 212 202 189 
3 248 228 241 
3 241 258 248 
3 248 259 237 
3 237 228 248 
3 248 273 259 
3 248 258 273 
3 261 271 282 
3 282 274 261 
3 261 249 271 
3 137 160 149 
3 160 172 149 
3 149 172 159 
3 149 159 133 
3 133 120 149 
3 120 137 149 
3 90 79 70 
3 90 100 79 
3 90 70 81 
3 112 100 90 
3 81 102 90 
3 102 112 90 
3 35 51 41 
3 41 25 35 
3 25 19 35 
3 38 51 35 
3 23 38 35 
3 35 19 23 
3 321 332 313 
3 312 327 321 
3 313 302 321 
3 321 302 312 
3 313 303 293 
3 293 302 313 
3 293 303 284 
3 282 302 293 
3 293 274 282 
3 284 274 293 
3 337 322 329 
3 329 319 339 
3 329 309 319 
3 322 309 329 
3 339 345 329 
3 345 337 329 
3 300 322 312 
3 300 309 322 
3 300 312 291 
3 291 280 300 
3 300 280 289 
3 289 309 300 
3 211 200 222 
3 211 188 200 
3 222 233 211 
3 233 224 211 
3 182 160 173 
3 173 188 182 
3 189 172 182 
3 182 172 160 
3 252 274 262 
3 252 261 274 
3 262 240 252 
3 249 261 238 
3 214 225 238 
3 225 249 238 
3 261 252 238 
3 332 321 335 
3 335 349 348 
3 348 332 335 
3 335 321 327 
3 335 343 349 
3 335 327 343 
3 188 211 201 
3 201 182 188 
3 189 182 201 
3 201 211 224 
3 201 212 189 
3 224 212 201 
3 231 252 240 
3 231 238 252 
3 231 240 215 
3 214 238 231 
3 231 205 214 
3 215 205 231 

CELL_TYPES 661
5
5
5
5
5
5
5
5
5
5
5
5
5
5
5
5
5
5
5
5
5
5
5
5
5
5
5
5
5
5
5
5
5
5
5
5
5
5
5
5
5
5
5
5
5
5
5
5
5
5
5
5
5
5
5
5
5
5
5
5
5
5
5
5
5
5
5
5
5
5
5
5
5
5
5
5
5
5
5
5
5
5
5
5
5
5
5
5
5
5
5
5
5
5
5
5
5
5
5
5
5
5
5
5
5
5
5
5
5
5
5
5
5
5
5
5
5
5
5
5
5
5
5
5
5
5
5
5
5
5
5
5
5
5
5
5
5
5
5
5
5
5
5
5
5
5
5
5
5
5
5
5
5
5
5
5
5
5
5
5
5
5
5
5
5
5
5
5
5
5
5
5
5
5
5
5
5
5
5
5
5
5
5
5
5
5
5
5
5
5
5
5
5
5
5
5
5
5
5
5
5
5
5
5
5
5
5
5
5
5
5
5
5
5
5
5
5
5
5
5
5
5
5
5
5
5
5
5
5
5
5
5
5
5
5
5
5
5
5
5
5
5
5
5
5
5
5
5
5
5
5
5
5
5
5
5
5
5
5
5
5
5
5
5
5
5
5
5
5
5
5
5
5
5
5
5
5
5
5
5
5
5
5
5
5
5
5
5
5
5
5
5
5
5
5
5
5
5
5
5
5
5
5
5
5
5
5
5
5
5
5
5
5
5
5
5
5
5
5
5
5
5
5
5
5
5
5
5
5
5
5
5
5
5
5
5
5
5
5
5
5
5
5
5
5
5
5
5
5
5
5
5
5
5
5
5
5
5
5
5
5
5
5
5
5
5
5
5
5
5
5
5
5
5
5
5
5
5
5
5
5
5
5
5
5
5
5
5
5
5
5
5
5
5
5
5
5
5
5
5
5
5
5
5
5
5
5
5
5
5
5
5
5
5
5
5
5
5
5
5
5
5
5
5
5
5
5
5
5
5
5
5
5
5
5
5
5
5
5
5
5
5
5
5
5
5
5
5
5
5
5
5
5
5
5
5
5
5
5
5
5
5
5
5
5
5
5
5
5
5
5
5
5
5
5
5
5
5
5
5
5
5
5
5
5
5
5
5
5
5
5
5
5
5
5
5
5
5
5
5
5
5
5
5
5
5
5
5
5
5
5
5
5
5
5
5
5
5
5
5
5
5
5
5
5
5
5
5
5
5
5
5
5
5
5
5
5
5
5
5
5
5
5
5
5
5
5
5
5
5
5
5
5
5
5
5
5
5
5
5
5
5
5
5
5
5
5
5
5
5
5
5
5
5
5
5
5
5
5
5
5
5
5
5
5
5
5
5
5
5
5
5
5
5
5
5
5
5
5
5
5
5
5
5
5
5
5
5
5
5
5
5
5
5
5
5
5
5
5
5
5
5
5
5
5
5
5
5
5
5
5
5
5
5
5
5
5
5
5
5
5
5
5
5
5
5
5
5
5
5
5
5
5
5
5
5
5
5
5
5
5

POINT_DATA 362
SCALARS MatlabExportedScalars double
LOOKUP_TABLE default
0
0
0
0
0
0
0
7.251113e-02
0
0
8.497043e-02
8.461839e-02
7.382185e-02
1.001349e-01
0
7.237716e-02
0
9.900546e-02
8.408035e-02
1.361024e-01
8.187104e-02
0
0
1.544863e-01
8.633135e-02
1.537333e-01
1.398699e-01
1.376718e-01
8.299220e-02
1.735205e-01
0
0
8.627581e-02
1.713514e-01
1.498456e-01
1.906121e-01
1.461849e-01
8.108244e-02
2.103982e-01
1.515485e-01
1.944583e-01
2.092452e-01
8.356371e-02
0
1.908631e-01
0
1.454522e-01
7.203686e-02
2.261800e-01
2.011103e-01
2.231077e-01
2.366297e-01
1.488179e-01
7.629863e-02
0
1.949662e-01
1.359290e-01
0
2.537939e-01
2.380092e-01
2.521541e-01
2.003992e-01
1.391738e-01
2.325447e-01
9.489138e-02
1.884023e-01
0
9.711402e-02
2.655240e-01
2.733543e-01
2.408386e-01
2.614015e-01
1.925706e-01
2.308992e-01
1.649471e-01
7.316887e-02
0
2.870579e-01
1.684946e-01
2.717796e-01
2.849073e-01
2.361554e-01
7.742162e-02
2.642347e-01
2.175984e-01
0
1.413574e-01
2.949976e-01
2.213218e-01
3.016573e-01
2.706126e-01
1.452032e-01
2.899298e-01
2.579379e-01
1.988235e-01
9.457565e-02
0
9.804903e-02
0
3.119682e-01
2.970151e-01
3.094439e-01
2.614814e-01
2.017560e-01
2.884091e-01
2.450314e-01
1.675739e-01
7.079338e-02
1.695116e-01
3.164585e-01
3.226120e-01
3.110329e-01
2.921058e-01
2.462570e-01
2.803835e-01
2.239068e-01
7.575534e-02
1.369175e-01
0
0
2.222553e-01
3.297474e-01
3.271244e-01
3.149525e-01
2.808954e-01
3.068046e-01
2.654740e-01
1.985917e-01
1.405739e-01
8.542724e-02
3.311067e-01
3.259091e-01
3.370811e-01
2.624468e-01
2.450179e-01
2.963634e-01
3.073429e-01
1.941415e-01
1.636969e-01
8.542635e-02
0
0
2.171941e-01
2.800683e-01
3.189683e-01
3.386894e-01
3.412213e-01
3.267020e-01
2.932441e-01
2.378131e-01
1.507009e-01
1.284880e-01
6.775909e-02
2.572133e-01
3.062467e-01
3.347038e-01
3.397179e-01
3.455970e-01
3.162666e-01
2.727052e-01
2.022716e-01
8.750402e-02
1.843811e-01
0
0
2.873617e-01
3.250710e-01
3.443974e-01
3.324850e-01
3.468704e-01
2.996213e-01
2.281445e-01
2.436108e-01
1.526274e-01
1.333789e-01
2.621427e-01
3.094470e-01
3.376321e-01
1.871180e-01
8.659913e-02
3.484089e-01
3.425503e-01
2.040841e-01
3.193094e-01
2.757570e-01
0
7.112443e-02
1.333790e-01
1.526274e-01
2.436108e-01
2.281445e-01
2.996213e-01
3.468704e-01
3.324850e-01
3.443974e-01
3.250710e-01
2.873617e-01
0
0
1.843811e-01
8.750401e-02
2.022716e-01
2.727052e-01
3.162666e-01
3.455970e-01
3.397179e-01
3.347038e-01
3.062467e-01
2.572134e-01
6.775914e-02
1.284880e-01
1.507009e-01
2.378131e-01
2.932441e-01
3.267020e-01
3.412213e-01
3.386894e-01
3.189683e-01
2.800683e-01
2.171941e-01
0
0
8.542635e-02
1.636970e-01
1.941415e-01
3.073429e-01
2.963634e-01
2.450180e-01
2.624468e-01
3.370811e-01
3.259091e-01
3.311067e-01
8.542728e-02
1.405739e-01
1.985917e-01
2.654740e-01
3.068046e-01
2.808954e-01
3.149525e-01
3.271244e-01
3.297474e-01
2.222553e-01
0
0
1.369176e-01
7.575534e-02
2.239068e-01
2.803835e-01
2.462570e-01
2.921058e-01
3.110329e-01
3.226120e-01
3.164585e-01
1.695116e-01
7.079340e-02
1.675739e-01
2.450314e-01
2.884091e-01
2.017560e-01
2.614814e-01
3.094439e-01
2.970151e-01
3.119682e-01
0
9.804903e-02
0
9.457567e-02
1.988235e-01
2.579379e-01
2.899298e-01
1.452032e-01
2.706126e-01
3.016573e-01
2.213218e-01
2.949976e-01
1.413574e-01
0
2.175984e-01
2.642347e-01
7.742162e-02
2.361554e-01
2.849073e-01
2.717796e-01
1.684946e-01
2.870579e-01
0
7.316887e-02
1.649471e-01
2.308992e-01
1.925706e-01
2.614015e-01
2.408386e-01
2.733543e-01
2.655240e-01
9.711402e-02
0
1.884023e-01
9.489139e-02
2.325447e-01
1.391738e-01
2.003992e-01
2.521541e-01
2.380092e-01
2.537939e-01
0
1.359290e-01
1.949662e-01
0
7.629863e-02
1.488179e-01
2.366297e-01
2.231077e-01
2.011103e-01
2.261800e-01
7.203686e-02
1.454522e-01
0
1.908631e-01
0
8.356371e-02
2.092452e-01
1.944583e-01
1.515485e-01
2.103982e-01
8.108244e-02
1.461849e-01
1.906121e-01
1.498456e-01
1.713514e-01
8.627580e-02
0
0
1.735205e-01
8.299220e-02
1.376718e-01
1.398699e-01
1.537333e-01
8.633135e-02
1.544863e-01
0
0
8.187103e-02
1.361024e-01
8.408035e-02
9.900545e-02
0
7.237715e-02
0
1.001349e-01
7.382185e-02
8.461839e-02
8.497043e-02
0
0
7.251113e-02
0
0
0
0
0
0
0
