# vtk DataFile Version 3.0
15-Oct-2018 ellipse_sol.vtk.vtk exported from MATLAB
ASCII

DATASET UNSTRUCTURED_GRID
POINTS 180 double
-2.000046e+00 -2.373350e-03 0
-1.962405e+00 1.931482e-01 0
-1.961076e+00 -1.967172e-01 0
-1.867104e+00 3.587225e-01 0
-1.859835e+00 -3.679118e-01 0
-1.795845e+00 -1.301239e-01 0
-1.785413e+00 7.268280e-02 0
-1.726806e+00 5.046057e-01 0
-1.717202e+00 -5.127644e-01 0
-1.713896e+00 2.666967e-01 0
-1.660994e+00 -2.864069e-01 0
-1.604627e+00 -7.357600e-02 0
-1.566986e+00 6.215618e-01 0
-1.566595e+00 1.334815e-01 0
-1.549729e+00 -6.323139e-01 0
-1.536945e+00 3.754749e-01 0
-1.514809e+00 -4.139209e-01 0
-1.435614e+00 -2.180926e-01 0
-1.405665e+00 -2.044094e-02 0
-1.401755e+00 5.263828e-01 0
-1.386597e+00 2.143923e-01 0
-1.367977e+00 7.296751e-01 0
-1.362491e+00 -5.375506e-01 0
-1.357603e+00 -7.344391e-01 0
-1.284406e+00 3.860281e-01 0
-1.282735e+00 -3.531919e-01 0
-1.240831e+00 5.486671e-02 0
-1.204324e+00 -1.554835e-01 0
-1.195687e+00 5.977793e-01 0
-1.179411e+00 -8.077344e-01 0
-1.174357e+00 -5.617797e-01 0
-1.167477e+00 8.120006e-01 0
-1.152494e+00 2.299880e-01 0
-1.079086e+00 -3.513179e-01 0
-1.068119e+00 4.252452e-01 0
-1.049082e+00 2.202505e-02 0
-1.025724e+00 -6.828319e-01 0
-9.916770e-01 6.311129e-01 0
-9.765243e-01 8.728204e-01 0
-9.737579e-01 -1.673543e-01 0
-9.699232e-01 -8.747183e-01 0
-9.515489e-01 2.218709e-01 0
-9.438022e-01 -5.092059e-01 0
-8.665125e-01 4.197775e-01 0
-8.450533e-01 -3.376173e-01 0
-8.447566e-01 2.403639e-02 0
-8.318541e-01 7.409071e-01 0
-8.237243e-01 -7.111766e-01 0
-7.693691e-01 -9.231525e-01 0
-7.535454e-01 9.264872e-01 0
-7.473862e-01 5.729045e-01 0
-7.452104e-01 2.188347e-01 0
-7.431577e-01 -1.609060e-01 0
-7.278979e-01 -5.338825e-01 0
-6.374471e-01 3.940081e-01 0
-6.311446e-01 2.424222e-02 0
-6.265921e-01 -3.553695e-01 0
-6.257992e-01 -7.473936e-01 0
-6.193442e-01 7.607095e-01 0
-5.691601e-01 -9.587342e-01 0
-5.382590e-01 9.632224e-01 0
-5.250264e-01 2.068911e-01 0
-5.247949e-01 -1.727212e-01 0
-5.241193e-01 5.802519e-01 0
-5.198778e-01 -5.628755e-01 0
-4.230147e-01 -7.740947e-01 0
-4.179504e-01 3.956104e-01 0
-4.162818e-01 1.206986e-02 0
-4.159400e-01 -3.767607e-01 0
-4.132528e-01 7.830208e-01 0
-3.714594e-01 -9.826681e-01 0
-3.232613e-01 9.869484e-01 0
-3.123395e-01 -5.846556e-01 0
-3.121236e-01 -1.886335e-01 0
-3.117167e-01 5.938986e-01 0
-3.112038e-01 2.032087e-01 0
-2.146777e-01 -7.920029e-01 0
-2.071486e-01 4.005322e-01 0
-2.070512e-01 -3.930891e-01 0
-2.067982e-01 7.973834e-01 0
-2.065268e-01 4.552421e-03 0
-1.802799e-01 -9.959917e-01 0
-1.078085e-01 9.986355e-01 0
-1.038778e-01 -5.988364e-01 0
-1.035089e-01 -1.970305e-01 0
-1.034959e-01 6.011935e-01 0
-1.031316e-01 2.025312e-01 0
-6.990319e-07 -1.000086e+00 0
-8.938670e-09 4.023347e-01 0
-6.914523e-09 2.304490e-03 0
-6.530752e-09 8.021541e-01 0
2.599738e-08 -3.990072e-01 0
4.212491e-07 -8.016759e-01 0
1.031316e-01 2.025312e-01 0
1.034958e-01 6.011935e-01 0
1.035089e-01 -1.970305e-01 0
1.038781e-01 -5.988363e-01 0
1.078085e-01 9.986355e-01 0
1.802788e-01 -9.959918e-01 0
2.065268e-01 4.552455e-03 0
2.067982e-01 7.973834e-01 0
2.070513e-01 -3.930890e-01 0
2.071486e-01 4.005322e-01 0
2.146782e-01 -7.920028e-01 0
3.112038e-01 2.032087e-01 0
3.117166e-01 5.938986e-01 0
3.121237e-01 -1.886335e-01 0
3.123397e-01 -5.846554e-01 0
3.232613e-01 9.869484e-01 0
3.714588e-01 -9.826681e-01 0
4.132528e-01 7.830208e-01 0
4.159401e-01 -3.767606e-01 0
4.162818e-01 1.206991e-02 0
4.179504e-01 3.956105e-01 0
4.230150e-01 -7.740947e-01 0
5.198780e-01 -5.628755e-01 0
5.241193e-01 5.802520e-01 0
5.247950e-01 -1.727211e-01 0
5.250264e-01 2.068911e-01 0
5.382590e-01 9.632224e-01 0
5.691598e-01 -9.587343e-01 0
6.193441e-01 7.607095e-01 0
6.257993e-01 -7.473936e-01 0
6.265922e-01 -3.553695e-01 0
6.311446e-01 2.424226e-02 0
6.374471e-01 3.940081e-01 0
7.278980e-01 -5.338825e-01 0
7.431577e-01 -1.609059e-01 0
7.452104e-01 2.188347e-01 0
7.473862e-01 5.729045e-01 0
7.535454e-01 9.264872e-01 0
7.693689e-01 -9.231526e-01 0
8.237244e-01 -7.111766e-01 0
8.318541e-01 7.409071e-01 0
8.447566e-01 2.403642e-02 0
8.450533e-01 -3.376172e-01 0
8.665125e-01 4.197775e-01 0
9.438023e-01 -5.092059e-01 0
9.515489e-01 2.218709e-01 0
9.699231e-01 -8.747183e-01 0
9.737580e-01 -1.673543e-01 0
9.765243e-01 8.728204e-01 0
9.916771e-01 6.311129e-01 0
1.025725e+00 -6.828319e-01 0
1.049082e+00 2.202507e-02 0
1.068119e+00 4.252452e-01 0
1.079086e+00 -3.513179e-01 0
1.152494e+00 2.299880e-01 0
1.167477e+00 8.120006e-01 0
1.174357e+00 -5.617797e-01 0
1.179411e+00 -8.077344e-01 0
1.195687e+00 5.977793e-01 0
1.204324e+00 -1.554835e-01 0
1.240831e+00 5.486672e-02 0
1.282735e+00 -3.531919e-01 0
1.284406e+00 3.860281e-01 0
1.357603e+00 -7.344392e-01 0
1.362491e+00 -5.375506e-01 0
1.367977e+00 7.296751e-01 0
1.386597e+00 2.143923e-01 0
1.401755e+00 5.263828e-01 0
1.405665e+00 -2.044093e-02 0
1.435614e+00 -2.180926e-01 0
1.514809e+00 -4.139209e-01 0
1.536945e+00 3.754749e-01 0
1.549729e+00 -6.323139e-01 0
1.566595e+00 1.334815e-01 0
1.566986e+00 6.215618e-01 0
1.604627e+00 -7.357600e-02 0
1.660994e+00 -2.864069e-01 0
1.713896e+00 2.666967e-01 0
1.717202e+00 -5.127644e-01 0
1.726806e+00 5.046057e-01 0
1.785413e+00 7.268280e-02 0
1.795845e+00 -1.301239e-01 0
1.859835e+00 -3.679118e-01 0
1.867104e+00 3.587225e-01 0
1.961076e+00 -1.967172e-01 0
1.962405e+00 1.931482e-01 0
2.000046e+00 -2.373359e-03 0

CELLS 311 1244
3 179 178 173 
3 170 173 178 
3 114 122 115 
3 115 122 126 
3 127 135 140 
3 172 170 176 
3 176 170 178 
3 121 129 133 
3 142 141 133 
3 133 129 142 
3 116 129 121 
3 116 125 129 
3 113 125 116 
3 142 129 136 
3 129 125 136 
3 152 144 140 
3 156 165 157 
3 140 135 146 
3 146 152 140 
3 154 152 146 
3 173 170 166 
3 166 168 173 
3 161 168 166 
3 175 177 174 
3 173 168 174 
3 179 173 174 
3 174 177 179 
3 162 168 161 
3 161 152 162 
3 162 152 154 
3 107 114 115 
3 92 81 87 
3 87 98 92 
3 82 90 97 
3 100 97 90 
3 77 75 86 
3 66 75 77 
3 7 3 9 
3 3 1 9 
3 10 4 8 
3 21 12 19 
3 132 126 122 
3 132 139 143 
3 140 144 134 
3 134 127 140 
3 124 127 134 
3 115 126 123 
3 123 126 135 
3 135 127 123 
3 153 152 161 
3 144 152 153 
3 148 141 142 
3 158 160 167 
3 49 38 46 
3 21 19 28 
3 119 121 130 
3 121 133 130 
3 130 133 141 
3 138 134 144 
3 156 157 149 
3 149 157 154 
3 154 146 149 
3 163 165 171 
3 163 157 165 
3 154 157 163 
3 163 162 154 
3 137 146 135 
3 135 126 137 
3 143 149 137 
3 137 149 146 
3 137 132 143 
3 126 132 137 
3 101 95 91 
3 106 95 101 
3 143 139 150 
3 150 149 143 
3 156 149 150 
3 81 92 76 
3 114 107 103 
3 103 92 98 
3 103 109 114 
3 98 109 103 
3 36 29 40 
3 113 104 118 
3 118 125 113 
3 124 118 112 
3 112 118 104 
3 85 77 88 
3 88 77 86 
3 94 90 85 
3 94 100 90 
3 85 88 94 
3 97 100 108 
3 61 75 66 
3 66 54 61 
3 61 51 55 
3 61 54 51 
3 74 77 85 
3 66 77 74 
3 71 69 79 
3 82 71 79 
3 79 90 82 
3 85 90 79 
3 79 74 85 
3 69 74 79 
3 6 1 0 
3 6 9 1 
3 13 9 6 
3 63 74 69 
3 63 54 66 
3 66 74 63 
3 32 41 34 
3 34 41 43 
3 51 54 43 
3 43 41 51 
3 35 32 26 
3 41 32 35 
3 26 32 20 
3 20 18 26 
3 13 18 20 
3 7 9 15 
3 15 12 7 
3 15 19 12 
3 15 9 13 
3 13 20 15 
3 164 160 155 
3 164 166 170 
3 164 170 172 
3 172 167 164 
3 164 167 160 
3 151 160 158 
3 151 148 142 
3 158 148 151 
3 155 160 151 
3 21 28 31 
3 60 69 71 
3 46 38 37 
3 37 28 34 
3 38 31 37 
3 37 31 28 
3 34 43 37 
3 136 138 145 
3 155 151 145 
3 142 136 145 
3 145 151 142 
3 155 145 147 
3 147 145 138 
3 144 153 147 
3 147 138 144 
3 134 138 128 
3 124 134 128 
3 128 136 125 
3 128 138 136 
3 128 118 124 
3 125 118 128 
3 171 175 169 
3 169 163 171 
3 175 174 169 
3 169 174 168 
3 168 162 169 
3 162 163 169 
3 111 107 115 
3 111 101 107 
3 115 123 111 
3 106 101 111 
3 83 76 92 
3 91 78 83 
3 55 51 45 
3 51 41 45 
3 41 35 45 
3 52 62 55 
3 55 45 52 
3 68 78 73 
3 73 62 68 
3 131 132 122 
3 139 132 131 
3 40 48 47 
3 47 36 40 
3 117 123 127 
3 117 127 124 
3 124 112 117 
3 117 112 106 
3 106 111 117 
3 117 111 123 
3 102 104 113 
3 102 94 88 
3 100 94 105 
3 94 102 105 
3 113 116 105 
3 105 102 113 
3 95 89 84 
3 73 78 84 
3 91 95 84 
3 84 78 91 
3 73 84 80 
3 80 84 89 
3 86 75 80 
3 80 89 86 
3 86 89 93 
3 104 102 93 
3 93 88 86 
3 93 102 88 
3 106 112 99 
3 99 95 106 
3 99 89 95 
3 99 93 89 
3 99 112 104 
3 104 93 99 
3 13 6 11 
3 11 18 13 
3 10 17 11 
3 11 17 18 
3 14 23 22 
3 27 35 26 
3 26 18 27 
3 18 17 27 
3 58 63 69 
3 69 60 58 
3 58 60 49 
3 58 49 46 
3 50 43 54 
3 54 63 50 
3 46 37 50 
3 50 37 43 
3 50 58 46 
3 63 58 50 
3 24 20 32 
3 24 32 34 
3 19 15 24 
3 24 15 20 
3 34 28 24 
3 24 28 19 
3 159 164 155 
3 166 164 159 
3 155 147 159 
3 159 147 153 
3 161 166 159 
3 159 153 161 
3 70 65 59 
3 81 76 70 
3 76 65 70 
3 92 103 96 
3 96 83 92 
3 96 103 107 
3 91 83 96 
3 96 101 91 
3 107 101 96 
3 72 83 78 
3 72 68 64 
3 78 68 72 
3 64 65 72 
3 72 65 76 
3 76 83 72 
3 39 27 33 
3 35 27 39 
3 39 45 35 
3 39 52 45 
3 120 131 122 
3 122 114 120 
3 114 109 120 
3 36 47 42 
3 42 47 53 
3 62 52 56 
3 56 68 62 
3 64 68 56 
3 56 53 64 
3 57 65 64 
3 64 53 57 
3 53 47 57 
3 59 65 57 
3 57 48 59 
3 57 47 48 
3 100 105 110 
3 110 121 119 
3 110 116 121 
3 110 105 116 
3 119 108 110 
3 110 108 100 
3 67 62 73 
3 73 80 67 
3 55 62 67 
3 67 80 75 
3 67 61 55 
3 75 61 67 
3 5 11 6 
3 0 2 5 
3 5 6 0 
3 10 11 5 
3 2 4 5 
3 4 10 5 
3 33 27 25 
3 25 27 17 
3 30 42 33 
3 36 42 30 
3 33 25 30 
3 30 25 22 
3 29 36 30 
3 30 23 29 
3 30 22 23 
3 16 17 10 
3 14 22 16 
3 16 25 17 
3 22 25 16 
3 8 14 16 
3 16 10 8 
3 44 39 33 
3 33 42 44 
3 52 39 44 
3 44 56 52 
3 44 42 53 
3 53 56 44 

CELL_TYPES 311
5
5
5
5
5
5
5
5
5
5
5
5
5
5
5
5
5
5
5
5
5
5
5
5
5
5
5
5
5
5
5
5
5
5
5
5
5
5
5
5
5
5
5
5
5
5
5
5
5
5
5
5
5
5
5
5
5
5
5
5
5
5
5
5
5
5
5
5
5
5
5
5
5
5
5
5
5
5
5
5
5
5
5
5
5
5
5
5
5
5
5
5
5
5
5
5
5
5
5
5
5
5
5
5
5
5
5
5
5
5
5
5
5
5
5
5
5
5
5
5
5
5
5
5
5
5
5
5
5
5
5
5
5
5
5
5
5
5
5
5
5
5
5
5
5
5
5
5
5
5
5
5
5
5
5
5
5
5
5
5
5
5
5
5
5
5
5
5
5
5
5
5
5
5
5
5
5
5
5
5
5
5
5
5
5
5
5
5
5
5
5
5
5
5
5
5
5
5
5
5
5
5
5
5
5
5
5
5
5
5
5
5
5
5
5
5
5
5
5
5
5
5
5
5
5
5
5
5
5
5
5
5
5
5
5
5
5
5
5
5
5
5
5
5
5
5
5
5
5
5
5
5
5
5
5
5
5
5
5
5
5
5
5
5
5
5
5
5
5
5
5
5
5
5
5
5
5
5
5
5
5
5
5
5
5
5
5
5
5
5
5
5
5
5
5
5
5
5
5
5
5
5
5
5
5
5
5
5
5
5
5

POINT_DATA 180
SCALARS MatlabExportedScalars double
LOOKUP_TABLE default
0
0
0
0
0
7.139996e-02
7.950145e-02
0
0
7.833398e-02
9.141765e-02
1.410069e-01
0
1.480306e-01
0
1.084619e-01
1.018336e-01
1.750608e-01
2.026326e-01
9.162007e-02
1.894668e-01
0
9.781180e-02
0
1.752998e-01
1.857185e-01
2.439706e-01
2.462752e-01
1.141869e-01
0
1.369448e-01
0
2.458363e-01
2.347214e-01
2.136985e-01
2.899747e-01
1.071304e-01
1.434751e-01
0
2.942320e-01
0
2.899405e-01
2.070803e-01
2.548191e-01
2.831053e-01
3.287507e-01
1.101937e-01
1.297253e-01
0
0
2.126238e-01
3.256492e-01
3.345472e-01
2.329830e-01
2.972956e-01
3.602135e-01
3.103265e-01
1.374692e-01
1.300972e-01
0
0
3.554751e-01
3.606883e-01
2.378094e-01
2.463317e-01
1.425236e-01
3.199795e-01
3.828033e-01
3.261022e-01
1.378020e-01
0
0
2.537863e-01
3.762046e-01
2.492469e-01
3.739192e-01
1.448065e-01
3.316135e-01
3.342004e-01
1.415603e-01
3.958930e-01
0
0
2.560703e-01
3.836091e-01
2.544472e-01
3.826466e-01
0
3.353361e-01
4.001633e-01
1.427899e-01
3.366744e-01
1.445537e-01
3.826466e-01
2.544472e-01
3.836091e-01
2.560703e-01
0
0
3.958930e-01
1.415603e-01
3.342005e-01
3.316135e-01
1.448066e-01
3.739192e-01
2.492469e-01
3.762046e-01
2.537863e-01
0
0
1.378020e-01
3.261022e-01
3.828033e-01
3.199795e-01
1.425236e-01
2.463317e-01
2.378094e-01
3.606883e-01
3.554751e-01
0
0
1.300972e-01
1.374692e-01
3.103265e-01
3.602135e-01
2.972956e-01
2.329830e-01
3.345472e-01
3.256492e-01
2.126238e-01
0
0
1.297253e-01
1.101937e-01
3.287506e-01
2.831053e-01
2.548191e-01
2.070803e-01
2.899405e-01
0
2.942320e-01
0
1.434751e-01
1.071303e-01
2.899747e-01
2.136984e-01
2.347214e-01
2.458363e-01
0
1.369448e-01
0
1.141869e-01
2.462751e-01
2.439706e-01
1.857185e-01
1.752998e-01
0
9.781181e-02
0
1.894668e-01
9.162007e-02
2.026326e-01
1.750608e-01
1.018336e-01
1.084619e-01
0
1.480306e-01
0
1.410069e-01
9.141765e-02
7.833398e-02
0
0
7.950145e-02
7.139996e-02
0
0
0
0
0
